,Phase,Compound,Band gap (eV),VBM (eV),CBM (eV),HSE-gap (eV),HSE-VBM (eV),HSE-CBM (eV),a1 (A),a2 (A),a3 (A),alpha,beta,gamma,Cohesive energy (eV/atom),Vacuum level (eV),VBM Absolute (eV),CBM Absolute (eV),HSE vacuum level (eV),HSE-VBM Absolute (eV),HSE-CBM Absolute (eV),Phase index
126,PbNI_0,PbNI,0.0,-2.60756078,-2.60756078,0.0,-3.00333074,-3.00333074,4.146565463480001,4.35638059669,26.2390740418,89.6771385201,72.49859495220001,89.91394773200001,-3.94281516667,3.10716696209,-5.71472774209,-5.71472774209,3.0772075668,-6.080538306799999,-6.080538306799999,0
127,PbNI_1,PbNI,0.0,-2.04767001,-2.04767001,0.0,-2.27396941,-2.27396941,3.7482575624,3.7482575624,18.7562346391,89.97169819870001,89.97169819870001,60.204441755,-3.80502333333,3.13483084455,-5.18250085455,-5.18250085455,3.15271139263,-5.42668080263,-5.42668080263,1
128,PbPF_0,PbPF,1.28911392405,-4.45700628931,-3.1679937106900002,1.8619902438999998,-4.91995145631,-3.05804854369,4.0748091650300005,5.8985951664,24.1190733881,89.4065523384,89.998495405,89.96491357049999,-4.19248966667,2.01178018278,-6.46878647209,-5.17977389347,2.01723736992,-6.93718882623,-5.07528591361,0
129,PbPF_1,PbPF,0.874313131313,-5.32457,-4.45043,1.42323287671,-5.87755102041,-4.4544489795899995,4.151805738269999,4.151805738269999,20.0,90.0,90.0,60.3671658224,-4.060439,2.99704878985,-8.32161878985,-7.44747878985,3.09577643886,-8.973327459270001,-7.550225418449999,1
130,PbPCl_0,PbPCl,1.25827586207,-4.78210784314,-3.5238921568599997,1.8587686567200001,-5.30285873606,-3.4441412639399998,4.17195606586,5.979352506130001,29.7535978732,89.5158159067,89.9984341043,89.99862464030001,-3.6904795,1.99916535022,-6.781273193360001,-5.52305750708,2.01310280475,-7.31596154081,-5.45724406869,0
131,PbPCl_1,PbPCl,0.804521367521,-4.43170338983,-3.6272966101699997,1.34781111111,-4.928364640880001,-3.5806353591199995,4.169799021319999,4.169799021319999,20.9400780503,89.9529096089,89.9529096089,60.0466260332,-3.61862266667,2.70909029007,-7.1407936799,-6.336386900239999,2.74247329021,-7.67083793109,-6.323108649329999,1
132,PbPBr_0,PbPBr,1.1340645161299998,-4.53,-3.3960000000000004,1.7184782608700002,-5.09271259843,-3.37428740157,4.20673996107,5.98228267867,30.751149851100003,89.57021357290002,89.99147177530001,89.99902892040001,-3.5361805,1.9526272581,-6.4826272581,-5.3486272581000005,1.96830532972,-7.06101792815,-5.34259273129,0
133,PbPBr_1,PbPBr,0.621217391304,-4.03053763441,-3.40946236559,1.2463255814,-4.606121387280001,-3.35987861272,4.17465117382,4.17465117382,21.4313474682,89.9542750067,89.9542750067,60.047336369700005,-3.47176766667,2.5048466231,-6.53538425751,-5.91430898869,2.52953888741,-7.135660274690001,-5.88941750013,1
134,PbPI_0,PbPI,0.9189397590360001,-3.65943712575,-2.74056287425,1.4333030303,-4.218125,-2.784875,4.29355729613,5.98501625748,31.1198266592,89.6420305924,89.9968464243,89.99627123360001,-3.37598066667,2.20712390217,-5.86656102792,-4.94768677642,2.22511510704,-6.443240107039999,-5.00999010704,0
135,PbPI_1,PbPI,0.0,-2.85366671,-2.85366671,0.574046511628,-3.4694482758599996,-2.89555172414,4.214652549019999,4.214652549019999,21.806090735700003,89.9627251207,89.9627251207,60.0507129877,-3.30181376667,2.62469040553,-5.478357115530001,-5.478357115530001,2.64209787018,-6.11154614604,-5.53764959432,1
136,PbAsF_0,PbAsF,0.9882,-3.96803305785,-2.97996694215,1.5131212121200002,-4.4290060241,-2.9159939758999998,4.365450774,5.33942537982,24.8138879662,89.3678032766,89.9963205455,89.99307876559999,-4.083232,1.95949304222,-5.927526100070001,-4.93945998437,1.96175209779,-6.39075812189,-4.87774607369,0
137,PbAsF_1,PbAsF,0.756388235294,-4.62159302326,-3.86540697674,1.3092537313400001,-5.12755555556,-3.81844444444,4.07581269401,4.07581269401,21.1344899789,90.0,90.0,60.01672675100001,-3.87722133333,3.04654421893,-7.668137242189999,-6.9119511956699995,3.1460001197,-8.273555675259999,-6.96444456414,1
138,PbAsCl_0,PbAsCl,1.14322702703,-4.467080645159999,-3.32391935484,1.6588235294100002,-4.96088284519,-3.30211715481,4.33875449402,5.95645465788,30.5235123947,89.4793566642,89.99944648889999,89.9982230387,-3.58534083333,1.85687589667,-6.3239565418299994,-5.18079525151,1.86763026244,-6.82851310763,-5.16974741725,0
139,PbAsCl_1,PbAsCl,0.548375,-4.31760493827,-3.7693950617300005,1.00263703704,-4.78726470588,-3.7847352941199994,4.31054673731,4.31054673731,21.3845095082,89.94076149860001,89.94076149860001,60.1087735779,-3.48501433333,2.59597647631,-6.913581414579999,-6.365371538040001,2.62807710432,-7.4153418102,-6.41281239844,1
140,PbAsBr_0,PbAsBr,1.0640228571400001,-4.30997727273,-3.24602272727,1.5713162393200002,-4.8336297872300005,-3.26237021277,4.379410568530001,5.97958644476,31.4799898125,89.5479194017,89.9981998926,89.999855834,-3.43201966667,1.82019212216,-6.13016939489,-5.0662148494300006,1.83326371378,-6.6668935010100006,-5.095633926550001,0
141,PbAsBr_1,PbAsBr,0.471085714286,-4.01245070423,-3.5415492957699994,0.96022556391,-4.51305970149,-3.5529402985100003,4.30789218469,4.30789218469,21.9811025642,89.93962150870001,89.93962150870001,60.0837125016,-3.33970466667,2.39552201082,-6.4079727150500005,-5.937071306589999,2.4196610989,-6.932720800389999,-5.97260139741,1
142,PbAsI_0,PbAsI,0.969897727273,-3.6894180791,-2.7195819208999996,1.4251810344799998,-4.20506437768,-2.77993562232,4.449889743,6.04056811385,32.3710197533,89.6211994802,89.99800095030001,89.9971441727,-3.27456783333,2.02941746801,-5.71883554711,-4.74899938891,2.04409436992,-6.2491587476,-4.82402999224,0
143,PbAsI_1,PbAsI,0.042,-3.069,-3.029,0.61685106383,-3.6673578947400003,-3.0506421052599997,4.335063912869999,4.335063912869999,22.5228057254,89.94465225020001,89.94465225020001,60.0895912432,-3.1771152000000003,2.48179395066,-5.55079395066,-5.51079395066,2.49166585358,-6.15902374832,-5.5423079588399995,1
144,PbSbF_0,PbSbF,0.20108695652199998,-2.16470833333,-1.9642916666699999,0.6328260869569999,-2.5797857142900003,-1.9472142857099999,4.75093577058,5.0459179023,20.3853432348,89.44142787770001,89.92921689309999,89.70013531200001,-3.94935633333,2.78596776572,-4.95067609905,-4.75025943239,2.78539295392,-5.3651786682100004,-4.73260723963,0
145,PbSbF_1,PbSbF,0.399652173913,-4.949148936169999,-4.54985106383,0.7425641025640001,-5.4621645569599995,-4.71983544304,4.76556142701,4.76556142701,22.0,90.0,90.0,60.66976116399999,-3.738813,2.77386338223,-7.7230123183999995,-7.32371444606,2.85872852753,-8.320893084489999,-7.57856397057,1
146,PbSbCl_0,PbSbCl,0.745016393443,-3.71795934959,-2.97304065041,1.2225083798899998,-4.17671666667,-2.9542833333300003,4.68389697501,5.9938526671500005,31.4691587977,89.5482758043,89.99874260850001,89.99878005020001,-3.4356690000000003,1.92760785123,-5.64556720082,-4.90064850164,1.93551392361,-6.11223059028,-4.889797256940001,0
147,PbSbCl_1,PbSbCl,0.455,-3.9484057971,-3.4935942029000002,0.848256410256,-4.40006779661,-3.55193220339,4.61280841799,4.61280841799,21.984381689699998,89.91942462,89.91942462,60.1348988213,-3.29875116667,2.71404933605,-6.66245513315,-6.20764353895,2.74198773461,-7.1420555312200005,-6.293919938,1
148,PbSbBr_0,PbSbBr,0.7248833333329999,-3.7178925619800003,-2.99310743802,1.20307692308,-4.19250273224,-2.9894972677599996,4.69566122716,6.12284243474,32.434671078200005,89.5281855765,89.998863629,89.9999087663,-3.28174283333,1.88134214587,-5.59923470785,-4.87444958389,1.89152614648,-6.08402887872,-4.8810234142399995,0
149,PbSbBr_1,PbSbBr,0.417857142857,-3.701328125,-3.283671875,0.818879310345,-4.15388034188,-3.3351196581200004,4.60023738592,4.60023738592,22.6052021737,89.92296341030001,89.92296341030001,60.145185814099996,-3.15522396667,2.52615749481,-6.22748561981,-5.80982936981,2.54770921999,-6.70158956187,-5.882828878110001,1
150,PbSbI_0,PbSbI,0.770704225352,-3.3673146853099998,-2.59668531469,1.23184466019,-3.83989371981,-2.6081062801900003,4.740021886469999,6.26825487867,33.2504148604,89.5745649816,89.9976219221,89.9964439482,-3.12344366667,2.06174883979,-5.4290635251,-4.65843415448,2.07305003679,-5.912943756600001,-4.681156316980001,0
151,PbSbI_1,PbSbI,0.253523809524,-3.05862790698,-2.80537209302,0.704468468468,-3.5521785714300003,-2.84782142857,4.6053654164,4.6053654164,23.337582422399997,89.9220460192,89.9220460192,60.1357563131,-3.00221103333,2.56671208518,-5.62533999216,-5.3720841782,2.57424946107,-6.1264280325,-5.4220708896400005,1
152,PbBisF_0,PbBisF,0.0,-2.35260042,-2.35260042,0.327714285714,-2.65061111111,-2.3233888888900003,4.83924770816,5.05724311185,26.0942654284,89.7004846239,89.98307571129999,89.9943231791,-3.90788666667,2.04732064847,-4.39992106847,-4.39992106847,2.03612771491,-4.68673882602,-4.3595166038,0
153,PbBisF_1,PbBisF,0.21666666666700002,-4.234,-4.018,0.527509090909,-4.6670892857099995,-4.13991071429,4.70273456074,4.70273456074,20.234739200699998,89.8864023142,89.8864023142,60.171124163100004,-3.6639459999999997,2.96924687577,-7.203246875770001,-6.9872468757699995,3.07574369282,-7.74283297853,-7.21565440711,1
154,PbBisCl_0,PbBisCl,0.517023809524,-3.36794117647,-2.85105882353,0.949467625899,-3.7376857142900004,-2.78831428571,4.86214968075,5.8688501649,32.2939378283,89.54361959629999,89.99836103129999,89.9997742779,-3.39314616667,1.79655312558,-5.1644943020500005,-4.64761194911,1.79855872191,-5.5362444362000005,-4.5868730076199995,0
155,PbBisCl_1,PbBisCl,0.18688888888900002,-3.77721428571,-3.5907857142900004,0.488149253731,-4.15797058824,-3.67002941176,4.731146556050001,4.731146556050001,22.184795618400003,89.876464211,89.876464211,60.2397948569,-3.217376,2.65588174204,-6.4330960277500004,-6.24666745633,2.70750594371,-6.865476531950001,-6.37753535547,1
156,PbBisBr_0,PbBisBr,0.52288372093,-3.42187356322,-2.8991264367799996,0.954069444444,-3.8114896551699995,-2.8575103448299997,4.8757924632,6.01385311831,33.2048390695,89.5335086132,89.9923203503,89.99731534690001,-3.23841283333,1.7610411049,-5.1829146681200005,-4.66016754168,1.76607207103,-5.577561726199999,-4.62358241586,0
157,PbBisBr_1,PbBisBr,0.158695652174,-3.56008333333,-3.40191666667,0.460753846154,-3.94077272727,-3.48022727273,4.72066527428,4.72066527428,22.8479371541,89.87751847930001,89.87751847930001,60.2404026035,-3.07293836667,2.47174515097,-6.0318284843,-5.87366181764,2.51834596759,-6.459118694860001,-5.998573240320001,1
158,PbBisI_0,PbBisI,0.621719298246,-3.19631304348,-2.57468695652,1.05269662921,-3.59981564246,-2.54718435754,4.903114133380001,6.20575205627,34.2399065138,89.5993848841,89.9984220416,89.99667596040001,-3.07911533333,1.92807231266,-5.1243853561399995,-4.50275926918,1.93681502394,-5.5366306664,-4.48399938148,0
159,PbBisI_1,PbBisI,0.06233333333330001,-2.9841,-2.9229,0.391426229508,-3.3821129032300004,-2.99088709677,4.7151587267699995,4.7151587267699995,23.617839441799998,89.8820189442,89.8820189442,60.237362781,-2.9207301,2.50543354129,-5.48953354129,-5.42833354129,2.53795641079,-5.920069314020001,-5.5288435075599995,1